elastic collisions in one
dimension, with moving
target, 238–239
elastic collisions in one
dimension, with stationary
target, 237–238
inelastic collisions in one
dimension, 234
launched from water slide, 75
series of collisions, 228
single collision, 226–227
projectile motion, 70, 70–75
effects of air on, 73, 73
trajectory of, 73, 73
vertical and horizontal
components of, 70–73, 71–73
proper frequency, 1135
proper length, 1126
proper period, 1137
proper time, 1122
proper wavelength, 1135
protons, 612, 1335
accelerator studies, 818
and atomic number, 621
as baryons, 1338
charge, 620, 620t
decay of, 1348
in equilibrium, 618
as fermions, 1336
formation in early universe, 1359
in fusion, 1322–1329
as hadrons, 1338
magnetic dipole moment,
826, 826t
mass energy, 1139t
and mass number, 621–622
as matter wave, 1168, 1187
reaction with pions, 1342–1343
spin angular momentum, 953
ultrarelativistic, 1142–1143
proton number, 1280, 1280t
proton-proton (p-p) cycle, 1324,
1324–1326
proton synchrotrons, 819
p subshells, 1235
p-type semiconductors, 1264, 1264
pulleys, massless-frictionless, 105,
106, 108, 108–109
pulsars, secondary time standard
based on, 9
pulse, wave, 445, 446
P waves, 506
Q
QCD (quantum chromodynamics),
1354
QED (quantum electrodynamics),
954, 1352
quadrupole moment, 654
quanta, 1154
quantization, 629, 1154, 1187
electric charge, 619–621
energy of trapped electrons,
1187–1191
orbital angular momentum, 954
of orbital energy, 1204–1205
spin angular momentum, 953
quantum, 1154
quantum chromodynamics
(QCD), 1354
quantum corrals, 1199, 1199
quantum dots, 1187, 1198,
1198–1199
quantum electrodynamics (QED),
954, 1352
quantum jump, 1189
quantum mechanics, 95, 1154
quantum numbers, 1188, 1223t
charge, 1341
conservation of, 1348–1349
for hydrogen, 1206–1208
orbital, 1208, 1208t, 1223t, 1254
orbital magnetic, 954–955, 1208,
1208t, 1223t
and Pauli exclusion principle,
1230
and periodic table, 1234–1236
principal, 1208, 1208t, 1223t,
1254
spin, 1223t, 1225, 1335–1336
spin magnetic, 953, 1223t, 1224,
1335–1336
quantum physics. See also electron
traps; Pauli exclusion princi-
ple; photons; Schrödinger’s
equation
barrier tunneling, 1176–1179,
1177
and basic properties of atoms,
1220–1222
confinement principle, 1187
correspondence principle, 1193
defined, 1154
Heisenberg’s uncertainty prin-
ciple, 1172, 1172–1174
hydrogen wave function,
1208–1210
matter waves, 1187
nucleus, 1276
occupancy probability, 1258,
1258–1259
particles, 1335
photons in, 1164–1166
and solid-state electronic
devices, 1253
quantum states, 1187, 1221
degenerate, 1200
density of, 1257, 1257–1258
density of occupied, 1259–1260,
1260
hydrogen with n = 2, 1210,
1210–1211
quantum theory, 569, 570–571,
1154, 1187
quantum transition, 1189
quantum tunneling, 1176–1179,
1177
quarks, 818, 1349–1352, 1350,
1350t
charge, 620
formation in early universe,
1359
quark family, 1350t
quark flavors, 1350, 1353–1354
quasars, 376, 1356
quicksand, 412
Q value, 1140, 1291, 1294–1295,
1316, 1324–1325
R
R-value, 534–535
race cars:
collision with wall, 229, 229
fuel dispenser fires, 792, 792
negative lift in Grand Prix cars,
136, 136–137
rad (unit), 1296–1297
radar waves, 445
radial component:
of linear acceleration, 270
of torque, 278
radial probability density, 1209,
1211–1212
radians, 45, 260
radiated power, 1166
radiated waves, 974
radiation:
in cancer therapy, 1276
cosmic background, 1357–1358,
1360, 1361
dose equivalent, 1297
electromagnetic, 974
reflected, 984
short wave, 974
ultraviolet, 950
radiation dosage, 1296–1297
radiation heat transfer, 536–538
radiation pressure, 983–985
radioactive dating, 1295,
1295–1296
radioactive decay, 621–622,
1286–1289, 1335–1336
alpha decay, 1289–1291, 1290
beta decay, 1292–1295, 1293,
1351
muons, 1123
and nuclidic chart, 1293–1294,
1294
process, 1286–1288
radioactive elements, 1277
radioactive wastes, 1318, 1319
radioactivity, of potassium, 1289
radionuclides, 1280
radio waves, 445, 499, 974
radius of curvature:
spherical mirrors, 1015,
1015–1016, 1016
spherical refracting surfaces,
1020–1021, 1021
radon, 1276
rail gun, 843, 843
rainbows, 994, 994–995
Maxwell’s, 973–974
and optical interference,
1051–1052, 1052
primary, 994, 1007, 1052, 1052
secondary, 994, 994, 1007, 1052
tertiary, 1007
ramp, rolling down, 299, 299–300
randomly polarized light, 986,
986
range, in projectile motion, 73, 73
rare earth elements, 957, 1239
rattlesnake, thermal radiation
sensors, 537
rays, 480, 480
incident, 991, 991
locating direct images with,
1018, 1018–1019
locating indirect object images
with, 1026, 1026
reflected, 991, 991
refracted, 991, 991
ray diagrams, 1018, 1018–1019
Rayleigh’s criterion, 1091,
1091–1094
RBE (relative biology effective-
ness factor), 1297
RC circuits, 788–792, 789
capacitor charging, 789,
789–790
capacitor discharging, 789,
790–792
real batteries, 773, 773, 777,
777–778
real emf devices, 773, 773
real engines, efficiency of, 593,
597–598
real fluids, 398
real focal point, 1016, 1016
real images, 1011
spherical mirrors, 1017
spherical refracting surfaces,
1020–1021, 1021
thin lenses, 1025, 1025
real solenoids, 849
recessional speed, of universe,
1357
rechargeable batteries, 773–774
recharging batteries, 779
red giant, 1325
red shift, 1135, 1367–1368
reference circle, 429
reference configuration, for
potential energy, 182
reference frames, 78–79
inertial, 86–87
noninertial, 97
reference line, 259, 259
reference particle, 429
reference point, for potential
energy, 182
reflected light, 991
reflected radiation, 984
reflected ray, 991, 991
reflecting planes, 1105, 1105–1106
reflection, 990–998, 991
first and second reflection
points, 1006
law of, 991
polarization by, 997–998, 998
from potential energy step,
1174–1176, 1175
from a potential step,
1174–1176
of standing waves at boundary,
466–467, 467
total internal, 996–997, 997
I-17
INDEX
